
#(C) 2022 by FIZ Karlsruhe - Leibniz Institute for Information Infrastructure.  All rights reserved.
data_35888-ICSD
_database_code_ICSD 35888
_audit_creation_date 2022-02-01
_chemical_name_common 'α-Ruthenium trichloride'
_chemical_formula_structural 'Ru Cl3'
_chemical_formula_sum 'Cl3 Ru1'
_exptl_crystal_density_diffrn 3.91
_diffrn_ambient_temperature 60.
_citation_title 'Low-temperature crystal and magnetic structure of α−RuCl$_3$'
loop_
_citation_id
_citation_journal_full
_citation_year
_citation_journal_volume
_citation_page_first
_citation_page_last
_citation_journal_id_ASTM
primary 'Physical Review B' 2016 93 1 8 PRBHB7
loop_
_citation_author_citation_id
_citation_author_name
primary 'Cao, H.B.'
primary 'Banerjee, A.'
primary 'Yan, I.-Q.'
primary 'Bridges, C.A.'
primary 'Lumsden, M.D.'
primary 'Mandrus, D.G.'
primary 'Tennant, D.A.'
primary 'Chakoumakos, B.C.'
primary 'Nagler, S.E.'
_cell_length_a 5.981(2)
_cell_length_b 10.354(4)
_cell_length_c 6.014(2)
_cell_angle_alpha 90.
_cell_angle_beta 108.800(1)
_cell_angle_gamma 90.
_cell_volume 352.56
_cell_formula_units_Z 4
_space_group_name_H-M_alt 'C 1 2/m 1'
_space_group_IT_number 12
loop_
_space_group_symop_id
_space_group_symop_operation_xyz
1 '-x, y, -z'
2 '-x, -y, -z'
3 'x, -y, z'
4 'x, y, z'
5 '-x+1/2, y+1/2, -z'
6 '-x+1/2, -y+1/2, -z'
7 'x+1/2, -y+1/2, z'
8 'x+1/2, y+1/2, z'
loop_
_atom_type_symbol
_atom_type_oxidation_number
Ru3+ 3
Cl1- -1
loop_
_atom_site_label
_atom_site_type_symbol
_atom_site_symmetry_multiplicity
_atom_site_Wyckoff_symbol
_atom_site_fract_x
_atom_site_fract_y
_atom_site_fract_z
_atom_site_U_iso_or_equiv
_atom_site_occupancy
Ru1 Ru3+ 4 h 0 0.16653(6) 0.5 0.0041(3) 1.
Cl1 Cl1- 4 i 0.2273(4) 0 0.7359(4) 0.0049(5) 1.
Cl2 Cl1- 8 j 0.2504(3) 0.17388(12) 0.2662(3) 0.0051(4) 1.
loop_
_atom_site_aniso_label
_atom_site_aniso_type_symbol
_atom_site_aniso_U_11
_atom_site_aniso_U_22
_atom_site_aniso_U_33
_atom_site_aniso_U_12
_atom_site_aniso_U_13
_atom_site_aniso_U_23
Ru1 Ru3+ 0.0039(5) 0.0039(4) 0.0046(5) 0 0.0017(3) 0
Cl1 Cl1- 0.0044(10) 0.0044(8) 0.0056(11) 0 0.0012(8) 0
Cl2 Cl1- 0.0049(7) 0.0062(7) 0.0049(8) -0.0007(5) 0.0026(6) 0.0001(5)
#End of TTdata_35888-ICSD