
#(C) 2022 by FIZ Karlsruhe - Leibniz Institute for Information Infrastructure.  All rights reserved.
data_258397-ICSD
_database_code_ICSD 258397
_audit_creation_date 2018-02-01
_chemical_name_common 'Ruthenium(III) chloride - alpha phase'
_chemical_formula_structural 'Ru Cl3'
_chemical_formula_sum 'Cl3 Ru1'
_chemical_name_structure_type RhBr3
_exptl_crystal_density_diffrn 3.92
_diffrn_ambient_temperature 80.
_citation_title

;
Monoclinic crystal structure of alpha-RuCl3 and the zigzag antiferromagnetic
ground state
;
loop_
_citation_id
_citation_journal_full
_citation_year
_citation_journal_volume
_citation_page_first
_citation_page_last
_citation_journal_id_ASTM
primary 'Physical Review B: Condensed Matter and Materials Physics' 2015 92 1 12
PRBMDO
loop_
_citation_author_citation_id
_citation_author_name
primary 'Johnson, R.D.'
primary 'Williams, S.C.'
primary 'Haghighirad, A.A.'
primary 'Singleton, J.'
primary 'Zapf, V.'
primary 'Manuel, P.'
primary 'Mazin, I.I.'
primary 'Li, Y.'
primary 'Jeschke, H.O.'
primary 'Valenti, R.'
primary 'Coldea, R.'
_cell_length_a 5.9762(7)
_cell_length_b 10.342(1)
_cell_length_c 6.013(1)
_cell_angle_alpha 90
_cell_angle_beta 108.87(2)
_cell_angle_gamma 90
_cell_volume 351.66
_cell_formula_units_Z 4
_space_group_name_H-M_alt 'P1'
_space_group_IT_number 1
loop_
_space_group_symop_id
_space_group_symop_operation_xyz
1 'x, y, z'
loop_
_atom_type_symbol
_atom_type_oxidation_number
Ru3+ 3
Cl1- -1
loop_
_atom_site_label
_atom_site_type_symbol
_atom_site_symmetry_multiplicity
_atom_site_Wyckoff_symbol
_atom_site_fract_x
_atom_site_fract_y
_atom_site_fract_z
_atom_site_U_iso_or_equiv
_atom_site_occupancy
Ru1 Ru3+ 2 i 0.008490882155646055 0.16653 0.5263474588865956 0.005 1
Ru2 Ru3+ 2 i -0.008490882155646055 0.8334699999999999 0.4736525411134043 0.005 1
Ru3 Ru3+ 2 i 0.5084908821556461 0.6665300000000001 0.5263474588865956 0.005 1
Ru4 Ru3+ 2 i 0.49150911784435397 0.33347 0.4736525411134043 0.005 1
Cl1 Cl1- 2 i 0.18716622073578595 0.0 0.7359 0.005 1
Cl2 Cl1- 2 i 0.8128337792642141 0.0 0.2641 0.005 1
Cl3 Cl1- 2 i 0.6871662207357859 0.5 0.7359 0.005 1
Cl4 Cl1- 2 i 0.3128337792642141 0.5 0.2641 0.005 1
Cl5 Cl1- 2 i 0.22202113252763023 0.20225886747236982 0.2662 0.005 1
Cl6 Cl1- 2 i 0.7779788674723698 0.20225886747236982 0.7338 0.005 1
Cl7 Cl1- 2 i 0.7779788674723698 0.7977411325276302 0.7338 0.005 1
Cl8 Cl1- 2 i 0.22202113252763023 0.7977411325276302 0.2662 0.005 1
Cl9 Cl1- 2 i 0.7220211325276302 0.7022588674723698 0.2662 0.005 1
Cl10 Cl1- 2 i 0.2779788674723698 0.7022588674723698 0.7338 0.005 1
Cl11 Cl1- 2 i 0.2779788674723698 0.2977411325276302 0.7338 0.005 1
Cl12 Cl1- 2 i 0.7220211325276302 0.2977411325276302 0.2662 0.005 1
#End of TTdata_258397-ICSD